TITLE= "results"
VARIABLES= "X", "Y", "Z", "PHI", "LAP", "PHI_NUM", "LAP_NUM" "ERRO_PHI" "ERRO_LAP"
ZONE N=2738 E=1296, ZONETYPE=FEBRICK, DATAPACKING=BLOCK, T="P0BL0_cartesian"
VARLOCATION= ([1-3]=NODAL, [4-9]=CELLCENTERED)
0.000000e+00 0.000000e+00 0.000000e+00 0.000000e+00 0.000000e+00 0.000000e+00 0.000000e+00 0.000000e+00 0.000000e+00 0.000000e+00 0.000000e+00 0.000000e+00 0.000000e+00 0.000000e+00 0.000000e+00 0.000000e+00 0.000000e+00 0.000000e+00 0.000000e+00 0.000000e+00 0.000000e+00 0.000000e+00 0.000000e+00 0.000000e+00 0.000000e+00 0.000000e+00 0.000000e+00 0.000000e+00 0.000000e+00 0.000000e+00 0.000000e+00 0.000000e+00 0.000000e+00 0.000000e+00 0.000000e+00 0.000000e+00 0.000000e+00 0.000000e+00 0.000000e+00 0.000000e+00 0.000000e+00 0.000000e+00 
0.000000e+00 0.000000e+00 0.000000e+00 0.000000e+00 0.000000e+00 0.000000e+00 0.000000e+00 0.000000e+00 0.000000e+00 0.000000e+00 0.000000e+00 0.000000e+00 0.000000e+00 0.000000e+00 0.000000e+00 0.000000e+00 0.000000e+00 0.000000e+00 0.000000e+00 0.000000e+00 0.000000e+00 0.000000e+00 0.000000e+00 0.000000e+00 0.000000e+00 0.000000e+00 0.000000e+00 0.000000e+00 0.000000e+00 0.000000e+00 0.000000e+00 0.000000e+00 2.777778e-02 2.777778e-02 2.777778e-02 2.777778e-02 2.777778e-02 2.777778e-02 2.777778e-02 2.777778e-02 2.777778e-02 2.777778e-02 
2.777778e-02 2.777778e-02 2.777778e-02 2.777778e-02 2.777778e-02 2.777778e-02 2.777778e-02 2.777778e-02 2.777778e-02 2.777778e-02 2.777778e-02 2.777778e-02 2.777778e-02 2.777778e-02 2.777778e-02 2.777778e-02 2.777778e-02 2.777778e-02 2.777778e-02 2.777778e-02 2.777778e-02 2.777778e-02 2.777778e-02 2.777778e-02 2.777778e-02 2.777778e-02 2.777778e-02 2.777778e-02 2.777778e-02 2.777778e-02 2.777778e-02 2.777778e-02 2.777778e-02 2.777778e-02 2.777778e-02 2.777778e-02 2.777778e-02 2.777778e-02 2.777778e-02 2.777778e-02 2.777778e-02 2.777778e-02 
2.777778e-02 2.777778e-02 2.777778e-02 2.777778e-02 2.777778e-02 2.777778e-02 2.777778e-02 2.777778e-02 2.777778e-02 2.777778e-02 2.777778e-02 2.777778e-02 2.777778e-02 2.777778e-02 2.777778e-02 2.777778e-02 2.777778e-02 2.777778e-02 2.777778e-02 2.777778e-02 2.777778e-02 2.777778e-02 5.555556e-02 5.555556e-02 5.555556e-02 5.555556e-02 5.555556e-02 5.555556e-02 5.555556e-02 5.555556e-02 5.555556e-02 5.555556e-02 5.555556e-02 5.555556e-02 5.555556e-02 5.555556e-02 5.555556e-02 5.555556e-02 5.555556e-02 5.555556e-02 5.555556e-02 5.555556e-02 
5.555556e-02 5.555556e-02 5.555556e-02 5.555556e-02 5.555556e-02 5.555556e-02 5.555556e-02 5.555556e-02 5.555556e-02 5.555556e-02 5.555556e-02 5.555556e-02 5.555556e-02 5.555556e-02 5.555556e-02 5.555556e-02 5.555556e-02 5.555556e-02 5.555556e-02 5.555556e-02 5.555556e-02 5.555556e-02 5.555556e-02 5.555556e-02 5.555556e-02 5.555556e-02 5.555556e-02 5.555556e-02 5.555556e-02 5.555556e-02 5.555556e-02 5.555556e-02 5.555556e-02 5.555556e-02 5.555556e-02 5.555556e-02 5.555556e-02 5.555556e-02 5.555556e-02 5.555556e-02 5.555556e-02 5.555556e-02 
5.555556e-02 5.555556e-02 5.555556e-02 5.555556e-02 5.555556e-02 5.555556e-02 5.555556e-02 5.555556e-02 5.555556e-02 5.555556e-02 5.555556e-02 5.555556e-02 8.333333e-02 8.333333e-02 8.333333e-02 8.333333e-02 8.333333e-02 8.333333e-02 8.333333e-02 8.333333e-02 8.333333e-02 8.333333e-02 8.333333e-02 8.333333e-02 8.333333e-02 8.333333e-02 8.333333e-02 8.333333e-02 8.333333e-02 8.333333e-02 8.333333e-02 8.333333e-02 8.333333e-02 8.333333e-02 8.333333e-02 8.333333e-02 8.333333e-02 8.333333e-02 8.333333e-02 8.333333e-02 8.333333e-02 8.333333e-02 
8.333333e-02 8.333333e-02 8.333333e-02 8.333333e-02 8.333333e-02 8.333333e-02 8.333333e-02 8.333333e-02 8.333333e-02 8.333333e-02 8.333333e-02 8.333333e-02 8.333333e-02 8.333333e-02 8.333333e-02 8.333333e-02 8.333333e-02 8.333333e-02 8.333333e-02 8.333333e-02 8.333333e-02 8.333333e-02 8.333333e-02 8.333333e-02 8.333333e-02 8.333333e-02 8.333333e-02 8.333333e-02 8.333333e-02 8.333333e-02 8.333333e-02 8.333333e-02 8.333333e-02 8.333333e-02 8.333333e-02 8.333333e-02 8.333333e-02 8.333333e-02 8.333333e-02 8.333333e-02 8.333333e-02 8.333333e-02 
8.333333e-02 8.333333e-02 1.111111e-01 1.111111e-01 1.111111e-01 1.111111e-01 1.111111e-01 1.111111e-01 1.111111e-01 1.111111e-01 1.111111e-01 1.111111e-01 1.111111e-01 1.111111e-01 1.111111e-01 1.111111e-01 1.111111e-01 1.111111e-01 1.111111e-01 1.111111e-01 1.111111e-01 1.111111e-01 1.111111e-01 1.111111e-01 1.111111e-01 1.111111e-01 1.111111e-01 1.111111e-01 1.111111e-01 1.111111e-01 1.111111e-01 1.111111e-01 1.111111e-01 1.111111e-01 1.111111e-01 1.111111e-01 1.111111e-01 1.111111e-01 1.111111e-01 1.111111e-01 1.111111e-01 1.111111e-01 
1.111111e-01 1.111111e-01 1.111111e-01 1.111111e-01 1.111111e-01 1.111111e-01 1.111111e-01 1.111111e-01 1.111111e-01 1.111111e-01 1.111111e-01 1.111111e-01 1.111111e-01 1.111111e-01 1.111111e-01 1.111111e-01 1.111111e-01 1.111111e-01 1.111111e-01 1.111111e-01 1.111111e-01 1.111111e-01 1.111111e-01 1.111111e-01 1.111111e-01 1.111111e-01 1.111111e-01 1.111111e-01 1.111111e-01 1.111111e-01 1.111111e-01 1.111111e-01 1.111111e-01 1.111111e-01 1.388889e-01 1.388889e-01 1.388889e-01 1.388889e-01 1.388889e-01 1.388889e-01 1.388889e-01 1.388889e-01 
1.388889e-01 1.388889e-01 1.388889e-01 1.388889e-01 1.388889e-01 1.388889e-01 1.388889e-01 1.388889e-01 1.388889e-01 1.388889e-01 1.388889e-01 1.388889e-01 1.388889e-01 1.388889e-01 1.388889e-01 1.388889e-01 1.388889e-01 1.388889e-01 1.388889e-01 1.388889e-01 1.388889e-01 1.388889e-01 1.388889e-01 1.388889e-01 1.388889e-01 1.388889e-01 1.388889e-01 1.388889e-01 1.388889e-01 1.388889e-01 1.388889e-01 1.388889e-01 1.388889e-01 1.388889e-01 1.388889e-01 1.388889e-01 1.388889e-01 1.388889e-01 1.388889e-01 1.388889e-01 1.388889e-01 1.388889e-01 
1.388889e-01 1.388889e-01 1.388889e-01 1.388889e-01 1.388889e-01 1.388889e-01 1.388889e-01 1.388889e-01 1.388889e-01 1.388889e-01 1.388889e-01 1.388889e-01 1.388889e-01 1.388889e-01 1.388889e-01 1.388889e-01 1.388889e-01 1.388889e-01 1.388889e-01 1.388889e-01 1.388889e-01 1.388889e-01 1.388889e-01 1.388889e-01 1.666667e-01 1.666667e-01 1.666667e-01 1.666667e-01 1.666667e-01 1.666667e-01 1.666667e-01 1.666667e-01 1.666667e-01 1.666667e-01 1.666667e-01 1.666667e-01 1.666667e-01 1.666667e-01 1.666667e-01 1.666667e-01 1.666667e-01 1.666667e-01 
1.666667e-01 1.666667e-01 1.666667e-01 1.666667e-01 1.666667e-01 1.666667e-01 1.666667e-01 1.666667e-01 1.666667e-01 1.666667e-01 1.666667e-01 1.666667e-01 1.666667e-01 1.666667e-01 1.666667e-01 1.666667e-01 1.666667e-01 1.666667e-01 1.666667e-01 1.666667e-01 1.666667e-01 1.666667e-01 1.666667e-01 1.666667e-01 1.666667e-01 1.666667e-01 1.666667e-01 1.666667e-01 1.666667e-01 1.666667e-01 1.666667e-01 1.666667e-01 1.666667e-01 1.666667e-01 1.666667e-01 1.666667e-01 1.666667e-01 1.666667e-01 1.666667e-01 1.666667e-01 1.666667e-01 1.666667e-01 
1.666667e-01 1.666667e-01 1.666667e-01 1.666667e-01 1.666667e-01 1.666667e-01 1.666667e-01 1.666667e-01 1.666667e-01 1.666667e-01 1.666667e-01 1.666667e-01 1.666667e-01 1.666667e-01 1.944444e-01 1.944444e-01 1.944444e-01 1.944444e-01 1.944444e-01 1.944444e-01 1.944444e-01 1.944444e-01 1.944444e-01 1.944444e-01 1.944444e-01 1.944444e-01 1.944444e-01 1.944444e-01 1.944444e-01 1.944444e-01 1.944444e-01 1.944444e-01 1.944444e-01 1.944444e-01 1.944444e-01 1.944444e-01 1.944444e-01 1.944444e-01 1.944444e-01 1.944444e-01 1.944444e-01 1.944444e-01 
1.944444e-01 1.944444e-01 1.944444e-01 1.944444e-01 1.944444e-01 1.944444e-01 1.944444e-01 1.944444e-01 1.944444e-01 1.944444e-01 1.944444e-01 1.944444e-01 1.944444e-01 1.944444e-01 1.944444e-01 1.944444e-01 1.944444e-01 1.944444e-01 1.944444e-01 1.944444e-01 1.944444e-01 1.944444e-01 1.944444e-01 1.944444e-01 1.944444e-01 1.944444e-01 1.944444e-01 1.944444e-01 1.944444e-01 1.944444e-01 1.944444e-01 1.944444e-01 1.944444e-01 1.944444e-01 1.944444e-01 1.944444e-01 1.944444e-01 1.944444e-01 1.944444e-01 1.944444e-01 1.944444e-01 1.944444e-01 
1.944444e-01 1.944444e-01 1.944444e-01 1.944444e-01 2.222222e-01 2.222222e-01 2.222222e-01 2.222222e-01 2.222222e-01 2.222222e-01 2.222222e-01 2.222222e-01 2.222222e-01 2.222222e-01 2.222222e-01 2.222222e-01 2.222222e-01 2.222222e-01 2.222222e-01 2.222222e-01 2.222222e-01 2.222222e-01 2.222222e-01 2.222222e-01 2.222222e-01 2.222222e-01 2.222222e-01 2.222222e-01 2.222222e-01 2.222222e-01 2.222222e-01 2.222222e-01 2.222222e-01 2.222222e-01 2.222222e-01 2.222222e-01 2.222222e-01 2.222222e-01 2.222222e-01 2.222222e-01 2.222222e-01 2.222222e-01 
2.222222e-01 2.222222e-01 2.222222e-01 2.222222e-01 2.222222e-01 2.222222e-01 2.222222e-01 2.222222e-01 2.222222e-01 2.222222e-01 2.222222e-01 2.222222e-01 2.222222e-01 2.222222e-01 2.222222e-01 2.222222e-01 2.222222e-01 2.222222e-01 2.222222e-01 2.222222e-01 2.222222e-01 2.222222e-01 2.222222e-01 2.222222e-01 2.222222e-01 2.222222e-01 2.222222e-01 2.222222e-01 2.222222e-01 2.222222e-01 2.222222e-01 2.222222e-01 2.222222e-01 2.222222e-01 2.222222e-01 2.222222e-01 2.500000e-01 2.500000e-01 2.500000e-01 2.500000e-01 2.500000e-01 2.500000e-01 
2.500000e-01 2.500000e-01 2.500000e-01 2.500000e-01 2.500000e-01 2.500000e-01 2.500000e-01 2.500000e-01 2.500000e-01 2.500000e-01 2.500000e-01 2.500000e-01 2.500000e-01 2.500000e-01 2.500000e-01 2.500000e-01 2.500000e-01 2.500000e-01 2.500000e-01 2.500000e-01 2.500000e-01 2.500000e-01 2.500000e-01 2.500000e-01 2.500000e-01 2.500000e-01 2.500000e-01 2.500000e-01 2.500000e-01 2.500000e-01 2.500000e-01 2.500000e-01 2.500000e-01 2.500000e-01 2.500000e-01 2.500000e-01 2.500000e-01 2.500000e-01 2.500000e-01 2.500000e-01 2.500000e-01 2.500000e-01 
2.500000e-01 2.500000e-01 2.500000e-01 2.500000e-01 2.500000e-01 2.500000e-01 2.500000e-01 2.500000e-01 2.500000e-01 2.500000e-01 2.500000e-01 2.500000e-01 2.500000e-01 2.500000e-01 2.500000e-01 2.500000e-01 2.500000e-01 2.500000e-01 2.500000e-01 2.500000e-01 2.500000e-01 2.500000e-01 2.500000e-01 2.500000e-01 2.500000e-01 2.500000e-01 2.777778e-01 2.777778e-01 2.777778e-01 2.777778e-01 2.777778e-01 2.777778e-01 2.777778e-01 2.777778e-01 2.777778e-01 2.777778e-01 2.777778e-01 2.777778e-01 2.777778e-01 2.777778e-01 2.777778e-01 2.777778e-01 
2.777778e-01 2.777778e-01 2.777778e-01 2.777778e-01 2.777778e-01 2.777778e-01 2.777778e-01 2.777778e-01 2.777778e-01 2.777778e-01 2.777778e-01 2.777778e-01 2.777778e-01 2.777778e-01 2.777778e-01 2.777778e-01 2.777778e-01 2.777778e-01 2.777778e-01 2.777778e-01 2.777778e-01 2.777778e-01 2.777778e-01 2.777778e-01 2.777778e-01 2.777778e-01 2.777778e-01 2.777778e-01 2.777778e-01 2.777778e-01 2.777778e-01 2.777778e-01 2.777778e-01 2.777778e-01 2.777778e-01 2.777778e-01 2.777778e-01 2.777778e-01 2.777778e-01 2.777778e-01 2.777778e-01 2.777778e-01 
2.777778e-01 2.777778e-01 2.777778e-01 2.777778e-01 2.777778e-01 2.777778e-01 2.777778e-01 2.777778e-01 2.777778e-01 2.777778e-01 2.777778e-01 2.777778e-01 2.777778e-01 2.777778e-01 2.777778e-01 2.777778e-01 3.055556e-01 3.055556e-01 3.055556e-01 3.055556e-01 3.055556e-01 3.055556e-01 3.055556e-01 3.055556e-01 3.055556e-01 3.055556e-01 3.055556e-01 3.055556e-01 3.055556e-01 3.055556e-01 3.055556e-01 3.055556e-01 3.055556e-01 3.055556e-01 3.055556e-01 3.055556e-01 3.055556e-01 3.055556e-01 3.055556e-01 3.055556e-01 3.055556e-01 3.055556e-01 
3.055556e-01 3.055556e-01 3.055556e-01 3.055556e-01 3.055556e-01 3.055556e-01 3.055556e-01 3.055556e-01 3.055556e-01 3.055556e-01 3.055556e-01 3.055556e-01 3.055556e-01 3.055556e-01 3.055556e-01 3.055556e-01 3.055556e-01 3.055556e-01 3.055556e-01 3.055556e-01 3.055556e-01 3.055556e-01 3.055556e-01 3.055556e-01 3.055556e-01 3.055556e-01 3.055556e-01 3.055556e-01 3.055556e-01 3.055556e-01 3.055556e-01 3.055556e-01 3.055556e-01 3.055556e-01 3.055556e-01 3.055556e-01 3.055556e-01 3.055556e-01 3.055556e-01 3.055556e-01 3.055556e-01 3.055556e-01 
3.055556e-01 3.055556e-01 3.055556e-01 3.055556e-01 3.055556e-01 3.055556e-01 3.333333e-01 3.333333e-01 3.333333e-01 3.333333e-01 3.333333e-01 3.333333e-01 3.333333e-01 3.333333e-01 3.333333e-01 3.333333e-01 3.333333e-01 3.333333e-01 3.333333e-01 3.333333e-01 3.333333e-01 3.333333e-01 3.333333e-01 3.333333e-01 3.333333e-01 3.333333e-01 3.333333e-01 3.333333e-01 3.333333e-01 3.333333e-01 3.333333e-01 3.333333e-01 3.333333e-01 3.333333e-01 3.333333e-01 3.333333e-01 3.333333e-01 3.333333e-01 3.333333e-01 3.333333e-01 3.333333e-01 3.333333e-01 
3.333333e-01 3.333333e-01 3.333333e-01 3.333333e-01 3.333333e-01 3.333333e-01 3.333333e-01 3.333333e-01 3.333333e-01 3.333333e-01 3.333333e-01 3.333333e-01 3.333333e-01 3.333333e-01 3.333333e-01 3.333333e-01 3.333333e-01 3.333333e-01 3.333333e-01 3.333333e-01 3.333333e-01 3.333333e-01 3.333333e-01 3.333333e-01 3.333333e-01 3.333333e-01 3.333333e-01 3.333333e-01 3.333333e-01 3.333333e-01 3.333333e-01 3.333333e-01 3.333333e-01 3.333333e-01 3.333333e-01 3.333333e-01 3.333333e-01 3.333333e-01 3.611111e-01 3.611111e-01 3.611111e-01 3.611111e-01 
3.611111e-01 3.611111e-01 3.611111e-01 3.611111e-01 3.611111e-01 3.611111e-01 3.611111e-01 3.611111e-01 3.611111e-01 3.611111e-01 3.611111e-01 3.611111e-01 3.611111e-01 3.611111e-01 3.611111e-01 3.611111e-01 3.611111e-01 3.611111e-01 3.611111e-01 3.611111e-01 3.611111e-01 3.611111e-01 3.611111e-01 3.611111e-01 3.611111e-01 3.611111e-01 3.611111e-01 3.611111e-01 3.611111e-01 3.611111e-01 3.611111e-01 3.611111e-01 3.611111e-01 3.611111e-01 3.611111e-01 3.611111e-01 3.611111e-01 3.611111e-01 3.611111e-01 3.611111e-01 3.611111e-01 3.611111e-01 
3.611111e-01 3.611111e-01 3.611111e-01 3.611111e-01 3.611111e-01 3.611111e-01 3.611111e-01 3.611111e-01 3.611111e-01 3.611111e-01 3.611111e-01 3.611111e-01 3.611111e-01 3.611111e-01 3.611111e-01 3.611111e-01 3.611111e-01 3.611111e-01 3.611111e-01 3.611111e-01 3.611111e-01 3.611111e-01 3.611111e-01 3.611111e-01 3.611111e-01 3.611111e-01 3.611111e-01 3.611111e-01 3.888889e-01 3.888889e-01 3.888889e-01 3.888889e-01 3.888889e-01 3.888889e-01 3.888889e-01 3.888889e-01 3.888889e-01 3.888889e-01 3.888889e-01 3.888889e-01 3.888889e-01 3.888889e-01 
3.888889e-01 3.888889e-01 3.888889e-01 3.888889e-01 3.888889e-01 3.888889e-01 3.888889e-01 3.888889e-01 3.888889e-01 3.888889e-01 3.888889e-01 3.888889e-01 3.888889e-01 3.888889e-01 3.888889e-01 3.888889e-01 3.888889e-01 3.888889e-01 3.888889e-01 3.888889e-01 3.888889e-01 3.888889e-01 3.888889e-01 3.888889e-01 3.888889e-01 3.888889e-01 3.888889e-01 3.888889e-01 3.888889e-01 3.888889e-01 3.888889e-01 3.888889e-01 3.888889e-01 3.888889e-01 3.888889e-01 3.888889e-01 3.888889e-01 3.888889e-01 3.888889e-01 3.888889e-01 3.888889e-01 3.888889e-01 
3.888889e-01 3.888889e-01 3.888889e-01 3.888889e-01 3.888889e-01 3.888889e-01 3.888889e-01 3.888889e-01 3.888889e-01 3.888889e-01 3.888889e-01 3.888889e-01 3.888889e-01 3.888889e-01 3.888889e-01 3.888889e-01 3.888889e-01 3.888889e-01 4.166667e-01 4.166667e-01 4.166667e-01 4.166667e-01 4.166667e-01 4.166667e-01 4.166667e-01 4.166667e-01 4.166667e-01 4.166667e-01 4.166667e-01 4.166667e-01 4.166667e-01 4.166667e-01 4.166667e-01 4.166667e-01 4.166667e-01 4.166667e-01 4.166667e-01 4.166667e-01 4.166667e-01 4.166667e-01 4.166667e-01 4.166667e-01 
4.166667e-01 4.166667e-01 4.166667e-01 4.166667e-01 4.166667e-01 4.166667e-01 4.166667e-01 4.166667e-01 4.166667e-01 4.166667e-01 4.166667e-01 4.166667e-01 4.166667e-01 4.166667e-01 4.166667e-01 4.166667e-01 4.166667e-01 4.166667e-01 4.166667e-01 4.166667e-01 4.166667e-01 4.166667e-01 4.166667e-01 4.166667e-01 4.166667e-01 4.166667e-01 4.166667e-01 4.166667e-01 4.166667e-01 4.166667e-01 4.166667e-01 4.166667e-01 4.166667e-01 4.166667e-01 4.166667e-01 4.166667e-01 4.166667e-01 4.166667e-01 4.166667e-01 4.166667e-01 4.166667e-01 4.166667e-01 
4.166667e-01 4.166667e-01 4.166667e-01 4.166667e-01 4.166667e-01 4.166667e-01 4.166667e-01 4.166667e-01 4.444444e-01 4.444444e-01 4.444444e-01 4.444444e-01 4.444444e-01 4.444444e-01 4.444444e-01 4.444444e-01 4.444444e-01 4.444444e-01 4.444444e-01 4.444444e-01 4.444444e-01 4.444444e-01 4.444444e-01 4.444444e-01 4.444444e-01 4.444444e-01 4.444444e-01 4.444444e-01 4.444444e-01 4.444444e-01 4.444444e-01 4.444444e-01 4.444444e-01 4.444444e-01 4.444444e-01 4.444444e-01 4.444444e-01 4.444444e-01 4.444444e-01 4.444444e-01 4.444444e-01 4.444444e-01 
4.444444e-01 4.444444e-01 4.444444e-01 4.444444e-01 4.444444e-01 4.444444e-01 4.444444e-01 4.444444e-01 4.444444e-01 4.444444e-01 4.444444e-01 4.444444e-01 4.444444e-01 4.444444e-01 4.444444e-01 4.444444e-01 4.444444e-01 4.444444e-01 4.444444e-01 4.444444e-01 4.444444e-01 4.444444e-01 4.444444e-01 4.444444e-01 4.444444e-01 4.444444e-01 4.444444e-01 4.444444e-01 4.444444e-01 4.444444e-01 4.444444e-01 4.444444e-01 4.444444e-01 4.444444e-01 4.444444e-01 4.444444e-01 4.444444e-01 4.444444e-01 4.444444e-01 4.444444e-01 4.722222e-01 4.722222e-01 
4.722222e-01 4.722222e-01 4.722222e-01 4.722222e-01 4.722222e-01 4.722222e-01 4.722222e-01 4.722222e-01 4.722222e-01 4.722222e-01 4.722222e-01 4.722222e-01 4.722222e-01 4.722222e-01 4.722222e-01 4.722222e-01 4.722222e-01 4.722222e-01 4.722222e-01 4.722222e-01 4.722222e-01 4.722222e-01 4.722222e-01 4.722222e-01 4.722222e-01 4.722222e-01 4.722222e-01 4.722222e-01 4.722222e-01 4.722222e-01 4.722222e-01 4.722222e-01 4.722222e-01 4.722222e-01 4.722222e-01 4.722222e-01 4.722222e-01 4.722222e-01 4.722222e-01 4.722222e-01 4.722222e-01 4.722222e-01 
4.722222e-01 4.722222e-01 4.722222e-01 4.722222e-01 4.722222e-01 4.722222e-01 4.722222e-01 4.722222e-01 4.722222e-01 4.722222e-01 4.722222e-01 4.722222e-01 4.722222e-01 4.722222e-01 4.722222e-01 4.722222e-01 4.722222e-01 4.722222e-01 4.722222e-01 4.722222e-01 4.722222e-01 4.722222e-01 4.722222e-01 4.722222e-01 4.722222e-01 4.722222e-01 4.722222e-01 4.722222e-01 4.722222e-01 4.722222e-01 5.000000e-01 5.000000e-01 5.000000e-01 5.000000e-01 5.000000e-01 5.000000e-01 5.000000e-01 5.000000e-01 5.000000e-01 5.000000e-01 5.000000e-01 5.000000e-01 
5.000000e-01 5.000000e-01 5.000000e-01 5.000000e-01 5.000000e-01 5.000000e-01 5.000000e-01 5.000000e-01 5.000000e-01 5.000000e-01 5.000000e-01 5.000000e-01 5.000000e-01 5.000000e-01 5.000000e-01 5.000000e-01 5.000000e-01 5.000000e-01 5.000000e-01 5.000000e-01 5.000000e-01 5.000000e-01 5.000000e-01 5.000000e-01 5.000000e-01 5.000000e-01 5.000000e-01 5.000000e-01 5.000000e-01 5.000000e-01 5.000000e-01 5.000000e-01 5.000000e-01 5.000000e-01 5.000000e-01 5.000000e-01 5.000000e-01 5.000000e-01 5.000000e-01 5.000000e-01 5.000000e-01 5.000000e-01 
5.000000e-01 5.000000e-01 5.000000e-01 5.000000e-01 5.000000e-01 5.000000e-01 5.000000e-01 5.000000e-01 5.000000e-01 5.000000e-01 5.000000e-01 5.000000e-01 5.000000e-01 5.000000e-01 5.000000e-01 5.000000e-01 5.000000e-01 5.000000e-01 5.000000e-01 5.000000e-01 5.277778e-01 5.277778e-01 5.277778e-01 5.277778e-01 5.277778e-01 5.277778e-01 5.277778e-01 5.277778e-01 5.277778e-01 5.277778e-01 5.277778e-01 5.277778e-01 5.277778e-01 5.277778e-01 5.277778e-01 5.277778e-01 5.277778e-01 5.277778e-01 5.277778e-01 5.277778e-01 5.277778e-01 5.277778e-01 
5.277778e-01 5.277778e-01 5.277778e-01 5.277778e-01 5.277778e-01 5.277778e-01 5.277778e-01 5.277778e-01 5.277778e-01 5.277778e-01 5.277778e-01 5.277778e-01 5.277778e-01 5.277778e-01 5.277778e-01 5.277778e-01 5.277778e-01 5.277778e-01 5.277778e-01 5.277778e-01 5.277778e-01 5.277778e-01 5.277778e-01 5.277778e-01 5.277778e-01 5.277778e-01 5.277778e-01 5.277778e-01 5.277778e-01 5.277778e-01 5.277778e-01 5.277778e-01 5.277778e-01 5.277778e-01 5.277778e-01 5.277778e-01 5.277778e-01 5.277778e-01 5.277778e-01 5.277778e-01 5.277778e-01 5.277778e-01 
5.277778e-01 5.277778e-01 5.277778e-01 5.277778e-01 5.277778e-01 5.277778e-01 5.277778e-01 5.277778e-01 5.277778e-01 5.277778e-01 5.555556e-01 5.555556e-01 5.555556e-01 5.555556e-01 5.555556e-01 5.555556e-01 5.555556e-01 5.555556e-01 5.555556e-01 5.555556e-01 5.555556e-01 5.555556e-01 5.555556e-01 5.555556e-01 5.555556e-01 5.555556e-01 5.555556e-01 5.555556e-01 5.555556e-01 5.555556e-01 5.555556e-01 5.555556e-01 5.555556e-01 5.555556e-01 5.555556e-01 5.555556e-01 5.555556e-01 5.555556e-01 5.555556e-01 5.555556e-01 5.555556e-01 5.555556e-01 
5.555556e-01 5.555556e-01 5.555556e-01 5.555556e-01 5.555556e-01 5.555556e-01 5.555556e-01 5.555556e-01 5.555556e-01 5.555556e-01 5.555556e-01 5.555556e-01 5.555556e-01 5.555556e-01 5.555556e-01 5.555556e-01 5.555556e-01 5.555556e-01 5.555556e-01 5.555556e-01 5.555556e-01 5.555556e-01 5.555556e-01 5.555556e-01 5.555556e-01 5.555556e-01 5.555556e-01 5.555556e-01 5.555556e-01 5.555556e-01 5.555556e-01 5.555556e-01 5.555556e-01 5.555556e-01 5.555556e-01 5.555556e-01 5.555556e-01 5.555556e-01 5.555556e-01 5.555556e-01 5.555556e-01 5.555556e-01 
5.833333e-01 5.833333e-01 5.833333e-01 5.833333e-01 5.833333e-01 5.833333e-01 5.833333e-01 5.833333e-01 5.833333e-01 5.833333e-01 5.833333e-01 5.833333e-01 5.833333e-01 5.833333e-01 5.833333e-01 5.833333e-01 5.833333e-01 5.833333e-01 5.833333e-01 5.833333e-01 5.833333e-01 5.833333e-01 5.833333e-01 5.833333e-01 5.833333e-01 5.833333e-01 5.833333e-01 5.833333e-01 5.833333e-01 5.833333e-01 5.833333e-01 5.833333e-01 5.833333e-01 5.833333e-01 5.833333e-01 5.833333e-01 5.833333e-01 5.833333e-01 5.833333e-01 5.833333e-01 5.833333e-01 5.833333e-01 
5.833333e-01 5.833333e-01 5.833333e-01 5.833333e-01 5.833333e-01 5.833333e-01 5.833333e-01 5.833333e-01 5.833333e-01 5.833333e-01 5.833333e-01 5.833333e-01 5.833333e-01 5.833333e-01 5.833333e-01 5.833333e-01 5.833333e-01 5.833333e-01 5.833333e-01 5.833333e-01 5.833333e-01 5.833333e-01 5.833333e-01 5.833333e-01 5.833333e-01 5.833333e-01 5.833333e-01 5.833333e-01 5.833333e-01 5.833333e-01 5.833333e-01 5.833333e-01 6.111111e-01 6.111111e-01 6.111111e-01 6.111111e-01 6.111111e-01 6.111111e-01 6.111111e-01 6.111111e-01 6.111111e-01 6.111111e-01 
6.111111e-01 6.111111e-01 6.111111e-01 6.111111e-01 6.111111e-01 6.111111e-01 6.111111e-01 6.111111e-01 6.111111e-01 6.111111e-01 6.111111e-01 6.111111e-01 6.111111e-01 6.111111e-01 6.111111e-01 6.111111e-01 6.111111e-01 6.111111e-01 6.111111e-01 6.111111e-01 6.111111e-01 6.111111e-01 6.111111e-01 6.111111e-01 6.111111e-01 6.111111e-01 6.111111e-01 6.111111e-01 6.111111e-01 6.111111e-01 6.111111e-01 6.111111e-01 6.111111e-01 6.111111e-01 6.111111e-01 6.111111e-01 6.111111e-01 6.111111e-01 6.111111e-01 6.111111e-01 6.111111e-01 6.111111e-01 
6.111111e-01 6.111111e-01 6.111111e-01 6.111111e-01 6.111111e-01 6.111111e-01 6.111111e-01 6.111111e-01 6.111111e-01 6.111111e-01 6.111111e-01 6.111111e-01 6.111111e-01 6.111111e-01 6.111111e-01 6.111111e-01 6.111111e-01 6.111111e-01 6.111111e-01 6.111111e-01 6.111111e-01 6.111111e-01 6.388889e-01 6.388889e-01 6.388889e-01 6.388889e-01 6.388889e-01 6.388889e-01 6.388889e-01 6.388889e-01 6.388889e-01 6.388889e-01 6.388889e-01 6.388889e-01 6.388889e-01 6.388889e-01 6.388889e-01 6.388889e-01 6.388889e-01 6.388889e-01 6.388889e-01 6.388889e-01 
6.388889e-01 6.388889e-01 6.388889e-01 6.388889e-01 6.388889e-01 6.388889e-01 6.388889e-01 6.388889e-01 6.388889e-01 6.388889e-01 6.388889e-01 6.388889e-01 6.388889e-01 6.388889e-01 6.388889e-01 6.388889e-01 6.388889e-01 6.388889e-01 6.388889e-01 6.388889e-01 6.388889e-01 6.388889e-01 6.388889e-01 6.388889e-01 6.388889e-01 6.388889e-01 6.388889e-01 6.388889e-01 6.388889e-01 6.388889e-01 6.388889e-01 6.388889e-01 6.388889e-01 6.388889e-01 6.388889e-01 6.388889e-01 6.388889e-01 6.388889e-01 6.388889e-01 6.388889e-01 6.388889e-01 6.388889e-01 
6.388889e-01 6.388889e-01 6.388889e-01 6.388889e-01 6.388889e-01 6.388889e-01 6.388889e-01 6.388889e-01 6.388889e-01 6.388889e-01 6.388889e-01 6.388889e-01 6.666667e-01 6.666667e-01 6.666667e-01 6.666667e-01 6.666667e-01 6.666667e-01 6.666667e-01 6.666667e-01 6.666667e-01 6.666667e-01 6.666667e-01 6.666667e-01 6.666667e-01 6.666667e-01 6.666667e-01 6.666667e-01 6.666667e-01 6.666667e-01 6.666667e-01 6.666667e-01 6.666667e-01 6.666667e-01 6.666667e-01 6.666667e-01 6.666667e-01 6.666667e-01 6.666667e-01 6.666667e-01 6.666667e-01 6.666667e-01 
6.666667e-01 6.666667e-01 6.666667e-01 6.666667e-01 6.666667e-01 6.666667e-01 6.666667e-01 6.666667e-01 6.666667e-01 6.666667e-01 6.666667e-01 6.666667e-01 6.666667e-01 6.666667e-01 6.666667e-01 6.666667e-01 6.666667e-01 6.666667e-01 6.666667e-01 6.666667e-01 6.666667e-01 6.666667e-01 6.666667e-01 6.666667e-01 6.666667e-01 6.666667e-01 6.666667e-01 6.666667e-01 6.666667e-01 6.666667e-01 6.666667e-01 6.666667e-01 6.666667e-01 6.666667e-01 6.666667e-01 6.666667e-01 6.666667e-01 6.666667e-01 6.666667e-01 6.666667e-01 6.666667e-01 6.666667e-01 
6.666667e-01 6.666667e-01 6.944444e-01 6.944444e-01 6.944444e-01 6.944444e-01 6.944444e-01 6.944444e-01 6.944444e-01 6.944444e-01 6.944444e-01 6.944444e-01 6.944444e-01 6.944444e-01 6.944444e-01 6.944444e-01 6.944444e-01 6.944444e-01 6.944444e-01 6.944444e-01 6.944444e-01 6.944444e-01 6.944444e-01 6.944444e-01 6.944444e-01 6.944444e-01 6.944444e-01 6.944444e-01 6.944444e-01 6.944444e-01 6.944444e-01 6.944444e-01 6.944444e-01 6.944444e-01 6.944444e-01 6.944444e-01 6.944444e-01 6.944444e-01 6.944444e-01 6.944444e-01 6.944444e-01 6.944444e-01 
6.944444e-01 6.944444e-01 6.944444e-01 6.944444e-01 6.944444e-01 6.944444e-01 6.944444e-01 6.944444e-01 6.944444e-01 6.944444e-01 6.944444e-01 6.944444e-01 6.944444e-01 6.944444e-01 6.944444e-01 6.944444e-01 6.944444e-01 6.944444e-01 6.944444e-01 6.944444e-01 6.944444e-01 6.944444e-01 6.944444e-01 6.944444e-01 6.944444e-01 6.944444e-01 6.944444e-01 6.944444e-01 6.944444e-01 6.944444e-01 6.944444e-01 6.944444e-01 6.944444e-01 6.944444e-01 7.222222e-01 7.222222e-01 7.222222e-01 7.222222e-01 7.222222e-01 7.222222e-01 7.222222e-01 7.222222e-01 
7.222222e-01 7.222222e-01 7.222222e-01 7.222222e-01 7.222222e-01 7.222222e-01 7.222222e-01 7.222222e-01 7.222222e-01 7.222222e-01 7.222222e-01 7.222222e-01 7.222222e-01 7.222222e-01 7.222222e-01 7.222222e-01 7.222222e-01 7.222222e-01 7.222222e-01 7.222222e-01 7.222222e-01 7.222222e-01 7.222222e-01 7.222222e-01 7.222222e-01 7.222222e-01 7.222222e-01 7.222222e-01 7.222222e-01 7.222222e-01 7.222222e-01 7.222222e-01 7.222222e-01 7.222222e-01 7.222222e-01 7.222222e-01 7.222222e-01 7.222222e-01 7.222222e-01 7.222222e-01 7.222222e-01 7.222222e-01 
7.222222e-01 7.222222e-01 7.222222e-01 7.222222e-01 7.222222e-01 7.222222e-01 7.222222e-01 7.222222e-01 7.222222e-01 7.222222e-01 7.222222e-01 7.222222e-01 7.222222e-01 7.222222e-01 7.222222e-01 7.222222e-01 7.222222e-01 7.222222e-01 7.222222e-01 7.222222e-01 7.222222e-01 7.222222e-01 7.222222e-01 7.222222e-01 7.500000e-01 7.500000e-01 7.500000e-01 7.500000e-01 7.500000e-01 7.500000e-01 7.500000e-01 7.500000e-01 7.500000e-01 7.500000e-01 7.500000e-01 7.500000e-01 7.500000e-01 7.500000e-01 7.500000e-01 7.500000e-01 7.500000e-01 7.500000e-01 
7.500000e-01 7.500000e-01 7.500000e-01 7.500000e-01 7.500000e-01 7.500000e-01 7.500000e-01 7.500000e-01 7.500000e-01 7.500000e-01 7.500000e-01 7.500000e-01 7.500000e-01 7.500000e-01 7.500000e-01 7.500000e-01 7.500000e-01 7.500000e-01 7.500000e-01 7.500000e-01 7.500000e-01 7.500000e-01 7.500000e-01 7.500000e-01 7.500000e-01 7.500000e-01 7.500000e-01 7.500000e-01 7.500000e-01 7.500000e-01 7.500000e-01 7.500000e-01 7.500000e-01 7.500000e-01 7.500000e-01 7.500000e-01 7.500000e-01 7.500000e-01 7.500000e-01 7.500000e-01 7.500000e-01 7.500000e-01 
7.500000e-01 7.500000e-01 7.500000e-01 7.500000e-01 7.500000e-01 7.500000e-01 7.500000e-01 7.500000e-01 7.500000e-01 7.500000e-01 7.500000e-01 7.500000e-01 7.500000e-01 7.500000e-01 7.777778e-01 7.777778e-01 7.777778e-01 7.777778e-01 7.777778e-01 7.777778e-01 7.777778e-01 7.777778e-01 7.777778e-01 7.777778e-01 7.777778e-01 7.777778e-01 7.777778e-01 7.777778e-01 7.777778e-01 7.777778e-01 7.777778e-01 7.777778e-01 7.777778e-01 7.777778e-01 7.777778e-01 7.777778e-01 7.777778e-01 7.777778e-01 7.777778e-01 7.777778e-01 7.777778e-01 7.777778e-01 
7.777778e-01 7.777778e-01 7.777778e-01 7.777778e-01 7.777778e-01 7.777778e-01 7.777778e-01 7.777778e-01 7.777778e-01 7.777778e-01 7.777778e-01 7.777778e-01 7.777778e-01 7.777778e-01 7.777778e-01 7.777778e-01 7.777778e-01 7.777778e-01 7.777778e-01 7.777778e-01 7.777778e-01 7.777778e-01 7.777778e-01 7.777778e-01 7.777778e-01 7.777778e-01 7.777778e-01 7.777778e-01 7.777778e-01 7.777778e-01 7.777778e-01 7.777778e-01 7.777778e-01 7.777778e-01 7.777778e-01 7.777778e-01 7.777778e-01 7.777778e-01 7.777778e-01 7.777778e-01 7.777778e-01 7.777778e-01 
7.777778e-01 7.777778e-01 7.777778e-01 7.777778e-01 8.055556e-01 8.055556e-01 8.055556e-01 8.055556e-01 8.055556e-01 8.055556e-01 8.055556e-01 8.055556e-01 8.055556e-01 8.055556e-01 8.055556e-01 8.055556e-01 8.055556e-01 8.055556e-01 8.055556e-01 8.055556e-01 8.055556e-01 8.055556e-01 8.055556e-01 8.055556e-01 8.055556e-01 8.055556e-01 8.055556e-01 8.055556e-01 8.055556e-01 8.055556e-01 8.055556e-01 8.055556e-01 8.055556e-01 8.055556e-01 8.055556e-01 8.055556e-01 8.055556e-01 8.055556e-01 8.055556e-01 8.055556e-01 8.055556e-01 8.055556e-01 
8.055556e-01 8.055556e-01 8.055556e-01 8.055556e-01 8.055556e-01 8.055556e-01 8.055556e-01 8.055556e-01 8.055556e-01 8.055556e-01 8.055556e-01 8.055556e-01 8.055556e-01 8.055556e-01 8.055556e-01 8.055556e-01 8.055556e-01 8.055556e-01 8.055556e-01 8.055556e-01 8.055556e-01 8.055556e-01 8.055556e-01 8.055556e-01 8.055556e-01 8.055556e-01 8.055556e-01 8.055556e-01 8.055556e-01 8.055556e-01 8.055556e-01 8.055556e-01 8.055556e-01 8.055556e-01 8.055556e-01 8.055556e-01 8.333333e-01 8.333333e-01 8.333333e-01 8.333333e-01 8.333333e-01 8.333333e-01 
8.333333e-01 8.333333e-01 8.333333e-01 8.333333e-01 8.333333e-01 8.333333e-01 8.333333e-01 8.333333e-01 8.333333e-01 8.333333e-01 8.333333e-01 8.333333e-01 8.333333e-01 8.333333e-01 8.333333e-01 8.333333e-01 8.333333e-01 8.333333e-01 8.333333e-01 8.333333e-01 8.333333e-01 8.333333e-01 8.333333e-01 8.333333e-01 8.333333e-01 8.333333e-01 8.333333e-01 8.333333e-01 8.333333e-01 8.333333e-01 8.333333e-01 8.333333e-01 8.333333e-01 8.333333e-01 8.333333e-01 8.333333e-01 8.333333e-01 8.333333e-01 8.333333e-01 8.333333e-01 8.333333e-01 8.333333e-01 